material_id,crystal_system,space_group,theoretical,reduction_limit,oxidation_limit,reduction_reaction,oxidation_reaction,formula_pretty,chemsys,nsites,energy_above_hull,band_gap,is_stable
mp-569782,Cubic,Fd-3m,False,0.0,2.14,4 Sr2LiCBr3N2 -> 4 Sr2LiCBr3N2,4 Sr2LiCBr3N2 -> 2 SrCN2 + 6 SrBr2 + 2 N2 + 2 C + 4 Li,Sr2LiCBr3N2,Br-C-Li-N-Sr,36,0.0,3.97,True
mp-1191141,Trigonal,P3_121,False,0.24,3.46,3 SrLi2SiO4 -> 3 SrLi2SiO4,3 SrLi2SiO4 -> 0.375 LiO8 + 3 SrSiO3 + 5.625 Li,SrLi2SiO4,Li-O-Si-Sr,24,0.0,4.64,True
mp-1037661,Tetragonal,P4/mmm,True,0.07,2.91,LiYMg30O32 -> LiYO2 + 30 MgO,LiYMg30O32 -> 0.25 Li2O2 + 0.5 Y2O3 + 30 MgO + 0.5 Li,LiYMg30O32,Li-Mg-O-Y,64,0.02,4.31,False
mp-1037656,Tetragonal,P4/mmm,True,0.07,2.91,LiYMg30O32 -> LiYO2 + 30 MgO,LiYMg30O32 -> 0.25 Li2O2 + 0.5 Y2O3 + 30 MgO + 0.5 Li,LiYMg30O32,Li-Mg-O-Y,64,0.02,4.34,False
mp-567371,Monoclinic,C2/m,False,0.26,0.74,Sr3Li4(GeN3)2 -> Sr3Li4(GeN3)2,Sr3Li4(GeN3)2 -> SrN2 + 2 SrGeN2 + 4 Li,Sr3Li4(GeN3)2,Ge-Li-N-Sr,15,0.0,2.05,True
mp-5840,Tetragonal,I4_1/amd,False,0.0,3.43,2 LiScO2 -> 2 LiScO2,2 LiScO2 -> Sc2O3 + 0.125 LiO8 + 1.875 Li,LiScO2,Li-O-Sc,8,0.0,3.9,True